# vtk DataFile Version 4.2
vtk output
ASCII
DATASET UNSTRUCTURED_GRID
POINTS 64758 float
0 0 0 339.888 -5239.85 1 339.888 -5231.75 1 
334.128 -5231.75 1 334.128 -5193.75 1 339.888 -5193.75 1 
339.888 -5185.63 1 426.808 -6084.31 1 426.808 -6065.19 1 
413.823 -6065.19 1 413.823 -6073.03 1 416.603 -6073.03 1 
418.513 -6074.94 1 418.513 -6081.5 1 418.513 -6084.31 1 
413.823 -6119.36 1 413.823 -6130.04 1 426.808 -6130.04 1 
426.808 -6108.08 1 418.513 -6108.08 1 418.513 -6110.89 1 
418.513 -6117.45 1 416.603 -6119.36 1 341.06 -5302.62 1 
341.06 -5286.68 1 329.789 -5286.68 1 329.789 -5293.17 1 
331.028 -5293.17 1 332.678 -5294.82 1 332.678 -5300.28 1 
332.678 -5302.62 1 329.789 -5331.45 1 329.789 -5338.51 1 
341.06 -5338.51 1 341.06 -5322 1 332.678 -5322 1 
332.678 -5324.34 1 332.678 -5329.8 1 331.028 -5331.45 1 
347.128 -5376.13 1 347.128 -5359.78 1 338.332 -5359.78 1 
338.332 -5366.68 1 338.613 -5366.68 1 340.263 -5368.33 1 
340.263 -5373.79 1 340.263 -5376.13 1 338.332 -5404.96 1 
338.332 -5412.01 1 347.128 -5412.01 1 347.128 -5395.51 1 
340.263 -5395.51 1 340.263 -5397.85 1 340.263 -5403.31 1 
338.613 -5404.96 1 355.391 -5448.09 1 355.391 -5430.65 1 
344.163 -5430.65 1 344.163 -5438.64 1 345.723 -5438.64 1 
347.373 -5440.29 1 347.373 -5445.75 1 347.373 -5448.09 1 
344.163 -5476.92 1 344.163 -5484.24 1 355.391 -5484.24 1 
355.391 -5467.47 1 347.373 -5467.47 1 347.373 -5469.81 1 
347.373 -5475.27 1 345.723 -5476.92 1 363.376 -5520.05 1 
363.376 -5504.68 1 351.149 -5504.68 1 351.149 -5510.6 1 
352.848 -5510.6 1 354.498 -5512.25 1 354.498 -5517.71 1 
354.498 -5520.05 1 351.149 -5548.88 1 351.149 -5555.28 1 
363.376 -5555.28 1 363.376 -5539.43 1 354.498 -5539.43 1 
354.498 -5541.77 1 354.498 -5547.23 1 352.848 -5548.88 1 
369.907 -5592.01 1 369.907 -5576.72 1 358.931 -5576.72 1 
358.931 -5582.56 1 360.593 -5582.56 1 362.243 -5584.21 1 
362.243 -5589.67 1 362.243 -5592.01 1 358.931 -5620.84 1 
358.931 -5626.26 1 369.907 -5626.26 1 369.907 -5611.39 1 
362.243 -5611.39 1 362.243 -5613.73 1 362.243 -5619.19 1 
360.593 -5620.84 1 379.077 -5663.97 1 379.077 -5646.38 1 
366.8 -5646.38 1 366.8 -5654.52 1 368.353 -5654.52 1 
370.003 -5656.17 1 370.003 -5661.63 1 370.003 -5663.97 1 
366.8 -5692.8 1 366.8 -5698.92 1 379.077 -5698.92 1 
379.077 -5683.35 1 370.003 -5683.35 1 370.003 -5685.69 1 
370.003 -5691.15 1 368.353 -5692.8 1 381.241 -5736.91 1 
381.241 -5717.87 1 368.803 -5717.87 1 368.803 -5725.63 1 
371.403 -5725.63 1 373.313 -5727.54 1 373.313 -5734.1 1 
373.313 -5736.91 1 368.803 -5771.96 1 368.803 -5781.4 1 
381.241 -5781.4 1 381.241 -5760.68 1 373.313 -5760.68 1 
373.313 -5763.49 1 373.313 -5770.05 1 371.403 -5771.96 1 
399.716 -5849.38 1 399.716 -5825.86 1 382.13 -5825.86 1 
382.13 -5838.1 1 385.068 -5838.1 1 386.978 -5840.01 1 
386.978 -5846.57 1 386.978 -5849.38 1 382.13 -5884.43 1 
382.13 -5892.33 1 399.716 -5892.33 1 399.716 -5873.15 1 
386.978 -5873.15 1 386.978 -5875.96 1 386.978 -5882.52 1 
385.068 -5884.43 1 407.085 -5927.69 1 407.085 -5905.4 1 
393.135 -5905.4 1 393.135 -5916.41 1 395.568 -5916.41 1 
397.478 -5918.32 1 397.478 -5924.88 1 397.478 -5927.69 1 
393.135 -5962.74 1 393.135 -5975.07 1 407.085 -5975.07 1 
407.085 -5951.46 1 397.478 -5951.46 1 397.478 -5954.27 1 
397.478 -5960.83 1 395.568 -5962.74 1 420.298 -6006 1 
420.298 -5984.81 1 401.994 -5984.81 1 401.994 -5994.72 1 
406.088 -5994.72 1 407.998 -5996.63 1 407.998 -6003.19 1 
407.998 -6006 1 401.994 -6041.05 1 401.994 -6050.5 1 
420.298 -6050.5 1 420.298 -6029.77 1 407.998 -6029.77 1 
407.998 -6032.58 1 407.998 -6039.14 1 406.088 -6041.05 1 
397.558 -6041.05 1 386.408 -6029.9 1 386.408 -6005.87 1 
397.558 -5994.72 1 430.218 -6006 1 430.218 -6001.16 1 
436.568 -6001.16 1 436.568 -5956.3 1 419.698 -5956.3 1 
419.698 -5951.46 1 387.038 -5962.74 1 375.888 -5951.59 1 
375.888 -5927.56 1 387.038 -5916.41 1 419.698 -5927.69 1 
419.698 -5922.85 1 426.048 -5922.85 1 426.048 -5877.99 1 
409.198 -5877.99 1 409.198 -5873.15 1 376.538 -5884.43 1 
365.388 -5873.28 1 365.388 -5849.25 1 376.538 -5838.1 1 
409.198 -5849.38 1 409.198 -5844.54 1 415.548 -5844.54 1 
415.548 -5765.52 1 395.533 -5765.52 1 395.533 -5760.68 1 
362.873 -5771.96 1 351.723 -5760.81 1 351.723 -5736.78 1 
362.873 -5725.63 1 395.533 -5736.91 1 395.533 -5732.07 1 
401.883 -5732.07 1 401.883 -5687.21 1 387.783 -5687.21 1 
387.783 -5683.35 1 361.723 -5692.8 1 352.403 -5683.48 1 
352.403 -5663.84 1 361.723 -5654.52 1 387.783 -5663.97 1 
387.783 -5660.11 1 394.133 -5660.11 1 394.133 -5615.25 1 
380.023 -5615.25 1 380.023 -5611.39 1 353.963 -5620.84 1 
344.643 -5611.52 1 344.643 -5591.88 1 353.963 -5582.56 1 
380.023 -5592.01 1 380.023 -5588.15 1 386.373 -5588.15 1 
386.373 -5543.29 1 372.278 -5543.29 1 372.278 -5539.43 1 
346.218 -5548.88 1 336.898 -5539.56 1 336.898 -5519.92 1 
346.218 -5510.6 1 372.278 -5520.05 1 372.278 -5516.19 1 
378.628 -5516.19 1 378.628 -5471.33 1 365.153 -5471.33 1 
365.153 -5467.47 1 339.093 -5476.92 1 329.773 -5467.6 1 
329.773 -5447.96 1 339.093 -5438.64 1 365.153 -5448.09 1 
365.153 -5444.23 1 371.503 -5444.23 1 371.503 -5399.37 1 
358.043 -5399.37 1 358.043 -5395.51 1 331.983 -5404.96 1 
322.663 -5395.64 1 322.663 -5376 1 331.983 -5366.68 1 
358.043 -5376.13 1 358.043 -5372.27 1 364.393 -5372.27 1 
364.393 -5325.86 1 350.458 -5325.86 1 350.458 -5322 1 
324.398 -5331.45 1 315.078 -5322.13 1 315.078 -5302.49 1 
324.398 -5293.17 1 350.458 -5302.62 1 350.458 -5298.76 1 
356.808 -5298.76 1 356.808 -5282.07 1 352.048 -5282.07 1 
352.048 -5261.19 1 356.808 -5261.19 1 356.808 -5250.45 1 
362.808 -5244.45 1 371.653 -5244.45 1 374.653 -5241.45 1 
374.653 -5231.75 1 356.003 -5193.75 1 381.003 -5168.75 1 
381.003 -5164.95 1 381.003 -5127.15 1 381.003 -5111.29 1 
380.049 -5106.6 1 370.29 -5083.61 1 368.303 -5073.84 1 
368.303 -4844.8 1 361.953 -4828.15 1 380.603 -4786.5 1 
412.753 -4786.5 1 412.753 -4770.62 1 465.888 -4770.62 1 
465.888 -4746.62 1 468.888 -4743.62 1 510.338 -4743.62 1 
510.338 -4730.92 1 510.338 -4661.07 1 468.888 -4661.07 1 
465.888 -4658.07 1 465.888 -4656.32 1 458.253 -4656.32 1 
451.783 -4655.47 1 336.033 -4624.45 1 317.503 -4600.3 1 
317.503 -4563.42 1 392.503 -4520.12 1 410.824 -4530.7 1 
423.303 -4534.04 1 435.763 -4534.04 1 435.763 -4198.91 1 
425.543 -4187.04 1 425.543 -4183.1 1 457.013 -4158.96 1 
522.033 -4176.38 1 528.503 -4177.23 1 579.273 -4177.23 1 
579.273 -4027.88 1 539.403 -4027.88 1 533.403 -4021.88 1 
533.403 -3951.18 1 445.889 -3877.75 1 409.453 -3799.61 1 
409.453 -3697.46 1 434.453 -3672.46 1 491.803 -3672.46 1 
491.803 -3631.52 1 448.523 -3631.52 1 442.523 -3625.52 1 
442.523 -3564.97 1 448.523 -3558.97 1 499.748 -3558.97 1 
499.748 -3518.03 1 458.073 -3518.03 1 452.073 -3512.03 1 
452.073 -3457.98 1 458.073 -3451.98 1 506.303 -3451.98 1 
506.303 -3404.38 1 465.998 -3404.38 1 459.998 -3398.38 1 
459.998 -3350.85 1 465.998 -3344.85 1 514.253 -3344.85 1 
514.253 -3297.25 1 478.698 -3297.25 1 472.698 -3291.25 1 
472.698 -3237.39 1 478.698 -3231.39 1 522.308 -3231.39 1 
522.308 -3177.41 1 478.698 -3177.41 1 472.698 -3171.41 1 
472.698 -3141.97 1 478.698 -3135.97 1 483.543 -3135.97 1 
483.543 -3087.3 1 489.543 -3081.3 1 532.718 -3081.3 1 
532.718 -3027.32 1 491.043 -3027.32 1 485.043 -3021.32 1 
485.043 -2967.46 1 491.043 -2961.46 1 539.018 -2961.46 1 
539.018 -2907.48 1 497.328 -2907.48 1 491.328 -2901.48 1 
491.328 -2847.62 1 497.328 -2841.62 1 545.293 -2841.62 1 
545.293 -2787.64 1 503.613 -2787.64 1 497.613 -2781.64 1 
497.613 -2723.8 1 503.613 -2717.8 1 548.773 -2717.8 1 
548.773 -2651.12 1 495.183 -2651.12 1 489.183 -2645.12 1 
489.183 -2612.64 1 495.183 -2606.64 1 496.723 -2606.64 1 
496.723 -2549.07 1 502.723 -2543.07 1 555.583 -2543.07 1 
555.583 -2476.39 1 502.723 -2476.39 1 496.723 -2470.39 1 
496.723 -2400.35 1 502.723 -2394.35 1 560.633 -2394.35 1 
560.633 -2314.47 1 502.063 -2314.47 1 496.063 -2308.47 1 
496.063 -2241.91 1 502.063 -2235.91 1 565.483 -2235.91 1 
565.483 -2142.69 1 503.258 -2142.69 1 497.258 -2136.69 1 
497.258 -2023.63 1 485.258 -2011.63 1 317.823 -2011.63 1 
300.647 -2018.46 1 233.214 -2011.06 1 238.598 -2000.92 1 
238.913 -2000.92 1 238.913 -1823.42 1 223.828 -1823.42 1 
211.828 -1811.42 1 211.828 -1808.59 1 213.513 -1804.42 1 
213.513 -1705.04 1 197.853 -1683.98 1 197.853 -1678.09 1 
200.813 -1672.92 1 200.813 -1583.65 1 190.503 -1571.77 1 
190.503 -1487.23 1 202.503 -1475.23 1 209.043 -1475.23 1 
209.043 -1367.25 1 202.123 -1367.25 1 190.123 -1355.25 1 
190.123 -953.55 1 202.123 -941.55 1 209.043 -941.55 1 
209.043 -789.15 1 202.123 -789.15 1 190.123 -777.15 1 
190.123 -331.4 1 240.123 -281.4 1 337.003 -281.4 1 
337.003 -174.21 1 387.003 -124.21 1 488.953 -124.21 1 
488.953 -3.56 1 0 -3.56 1 0 -7375.7 1 
174.628 -7375.7 1 174.628 -7353.35 1 164.033 -7353.35 1 
152.033 -7341.35 1 152.033 -7029.05 1 164.033 -7017.05 1 
170.943 -7017.05 1 170.943 -6956.6 1 170.753 -6956.6 1 
158.753 -6944.6 1 158.753 -6922.75 1 183.753 -6897.75 1 
200.813 -6897.75 1 200.813 -6808.63 1 197.828 -6803.44 1 
197.828 -6795.63 1 213.513 -6776.1 1 213.513 -6680.33 1 
211.813 -6676.15 1 211.813 -6673.33 1 223.813 -6661.33 1 
238.913 -6661.33 1 238.913 -6483.53 1 234.603 -6483.53 1 
228.603 -6477.53 1 228.603 -6469.97 1 297.737 -6423.77 1 
437.409 -6481.63 1 446.976 -6483.53 1 579.273 -6483.53 1 
579.273 -6254.93 1 562.606 -6254.93 1 487.648 -6191.47 1 
474.503 -6112.92 1 440.733 -6112.92 1 440.733 -6108.08 1 
408.073 -6119.36 1 396.923 -6108.21 1 396.923 -6084.18 1 
408.073 -6073.03 1 440.733 -6084.31 1 440.733 -6079.47 1 
447.083 -6079.47 1 447.083 -6034.61 1 430.218 -6034.61 1 
430.218 -6029.77 1 339.888 -5239.35 1 339.888 -5238.84 1 
339.888 -5238.34 1 339.888 -5237.83 1 339.888 -5237.32 1 
339.888 -5236.82 1 339.888 -5236.31 1 339.888 -5235.8 1 
339.888 -5235.3 1 339.888 -5234.79 1 339.888 -5234.28 1 
339.888 -5233.78 1 339.888 -5233.27 1 339.888 -5232.76 1 
339.888 -5232.26 1 339.504 -5231.75 1 339.12 -5231.75 1 
338.736 -5231.75 1 338.352 -5231.75 1 337.968 -5231.75 1 
337.584 -5231.75 1 337.2 -5231.75 1 336.816 -5231.75 1 
[...]
CELL_DATA 20972
SCALARS Temperature double
LOOKUP_TABLE default
433.195 433.191 433.186 433.181 433.175 433.167 433.159 433.15 433.14 
433.129 433.117 433.104 433.09 433.075 433.058 433.04 433.259 433.254 
433.248 433.242 433.235 433.226 433.217 433.207 433.196 433.184 433.17 
433.156 433.141 433.124 433.106 433.087 433.323 433.317 433.311 433.303 
433.295 433.286 433.275 433.264 433.252 433.239 433.224 433.209 433.192 
433.174 433.155 433.135 433.388 433.381 433.374 433.365 433.356 433.345 
433.334 433.322 433.308 433.294 433.278 433.262 433.244 433.225 433.205 
433.184 433.453 433.446 433.437 433.427 433.417 433.406 433.393 433.38 
433.365 433.35 433.333 433.315 433.296 433.276 433.255 433.232 433.519 
433.51 433.501 433.49 433.479 433.466 433.453 433.438 433.423 433.406 
433.389 433.37 433.349 433.328 433.305 433.282 433.585 433.576 433.565 
433.553 433.541 433.528 433.513 433.498 433.481 433.463 433.444 433.424 
433.403 433.38 433.357 433.331 433.652 433.641 433.63 433.617 433.604 
433.589 433.574 433.557 433.54 433.521 433.501 433.48 433.457 433.433 
433.408 433.382 433.719 433.707 433.695 433.681 433.667 433.651 433.635 
433.617 433.599 433.579 433.558 433.536 433.512 433.487 433.461 433.433 
433.786 433.774 433.76 433.746 433.73 433.714 433.697 433.678 433.658 
433.638 433.616 433.592 433.568 433.541 433.514 433.485 433.854 433.84 
433.826 433.811 433.794 433.777 433.759 433.739 433.719 433.697 433.674 
433.65 433.624 433.597 433.568 433.538 433.922 433.907 433.892 433.876 
433.859 433.841 433.821 433.801 433.78 433.757 433.733 433.708 433.681 
433.653 433.623 433.592 433.99 433.975 433.959 433.942 433.924 433.905 
433.885 433.863 433.841 433.818 433.793 433.766 433.739 433.71 433.679 
433.646 434.059 434.043 434.026 434.008 433.989 433.969 433.948 433.926 
433.903 433.879 433.853 433.826 433.798 433.768 433.736 433.702 434.128 
434.111 434.093 434.075 434.055 434.034 434.013 433.99 433.966 433.941 
433.914 433.887 433.857 433.827 433.794 433.759 434.198 434.18 434.161 
434.142 434.122 434.1 434.078 434.055 434.03 434.004 433.977 433.949 
433.919 433.888 433.854 433.819 434.268 434.249 434.231 434.211 434.19 
434.168 434.146 434.122 434.097 434.071 434.044 434.015 433.985 433.954 
433.92 433.885 434.338 434.319 434.3 434.28 434.259 434.237 434.214 
434.19 434.165 434.139 434.111 434.083 434.053 434.021 433.987 433.952 
434.408 434.39 434.37 434.349 434.328 434.306 434.283 434.259 434.233 
434.207 434.18 434.151 434.121 434.089 434.056 434.021 434.479 434.46 
434.44 434.419 434.398 434.375 434.352 434.328 434.302 434.276 434.248 
434.22 434.189 434.158 434.125 434.09 434.551 434.531 434.511 434.49 
434.468 434.445 434.422 434.397 434.372 434.345 434.318 434.289 434.259 
434.228 434.195 434.16 434.622 434.602 434.582 434.56 434.538 434.516 
434.492 434.467 434.442 434.415 434.388 434.359 434.329 434.298 434.266 
434.232 434.693 434.673 434.653 434.632 434.609 434.586 434.563 434.538 
434.513 434.486 434.459 434.43 434.4 434.369 434.337 434.304 434.765 
434.745 434.724 434.703 434.681 434.658 434.634 434.609 434.584 434.557 
434.53 434.501 434.472 434.441 434.409 434.376 434.838 434.817 434.796 
434.775 434.752 434.729 434.705 434.681 434.655 434.629 434.602 434.573 
434.544 434.514 434.482 434.45 434.91 434.89 434.869 434.847 434.824 
434.801 434.777 434.753 434.727 434.701 434.674 434.646 434.617 434.587 
434.556 434.524 434.983 434.962 434.941 434.919 434.897 434.874 434.85 
434.825 434.8 434.774 434.747 434.719 434.69 434.661 434.63 434.598 
435.056 435.035 435.014 434.992 434.97 434.946 434.923 434.898 434.873 
434.847 434.82 434.792 434.764 434.735 434.704 434.673 435.129 435.108 
435.087 435.065 435.043 435.019 434.996 434.971 434.946 434.92 434.894 
434.866 434.838 434.809 434.779 434.748 435.203 435.182 435.16 435.138 
435.116 435.093 435.069 435.045 435.02 434.994 434.968 434.941 434.913 
434.884 434.855 434.824 435.276 435.255 435.234 435.212 435.189 435.166 
435.143 435.119 435.094 435.068 435.042 435.015 434.988 434.959 434.93 
434.9 435.35 435.329 435.308 435.286 435.263 435.24 435.217 435.193 
435.168 435.143 435.117 435.09 435.063 435.035 435.006 434.977 435.424 
435.403 435.381 435.36 435.337 435.314 435.291 435.267 435.242 435.217 
435.192 435.165 435.139 435.111 435.083 435.054 435.498 435.477 435.456 
435.434 435.411 435.389 435.365 435.342 435.317 435.292 435.267 435.241 
435.214 435.187 435.159 435.131 435.572 435.551 435.53 435.508 435.486 
435.463 435.44 435.416 435.392 435.368 435.342 435.317 435.29 435.264 
435.236 435.208 435.647 435.625 435.604 435.582 435.56 435.538 435.515 
435.491 435.467 435.443 435.418 435.393 435.367 435.34 435.313 435.285 
435.721 435.7 435.679 435.657 435.635 435.612 435.59 435.566 435.543 
435.518 435.494 435.469 435.443 435.417 435.39 435.363 435.795 435.774 
435.753 435.731 435.71 435.687 435.665 435.641 435.618 435.594 435.57 
435.545 435.519 435.494 435.467 435.441 435.87 435.849 435.828 435.806 
435.784 435.762 435.74 435.717 435.693 435.67 435.646 435.621 435.596 
435.571 435.545 435.518 435.944 435.923 435.902 435.881 435.859 435.837 
435.815 435.792 435.769 435.745 435.722 435.697 435.673 435.647 435.622 
435.596 436.019 435.998 435.977 435.956 435.934 435.912 435.89 435.867 
435.844 435.821 435.798 435.774 435.749 435.724 435.699 435.674 436.093 
436.073 436.052 436.031 436.009 435.987 435.965 435.943 435.92 435.897 
435.874 435.85 435.826 435.801 435.777 435.751 436.168 436.147 436.126 
436.105 436.084 436.062 436.04 436.018 435.996 435.973 435.95 435.926 
435.902 435.878 435.854 435.829 436.242 436.222 436.201 436.18 436.159 
436.137 436.116 436.094 436.071 436.049 436.026 436.002 435.979 435.955 
435.931 435.907 436.317 436.296 436.276 436.255 436.234 436.212 436.191 
436.169 436.147 436.124 436.102 436.079 436.055 436.032 436.008 435.984 
436.391 436.371 436.35 436.329 436.308 436.287 436.266 436.244 436.222 
436.2 436.177 436.155 436.132 436.108 436.085 436.061 436.465 436.445 
436.425 436.404 436.383 436.362 436.341 436.319 436.297 436.275 436.253 
436.23 436.208 436.185 436.161 436.138 436.539 436.519 436.499 436.478 
436.457 436.436 436.415 436.394 436.372 436.35 436.328 436.306 436.284 
436.261 436.238 436.215 436.613 436.593 436.573 436.552 436.532 436.511 
436.49 436.469 436.447 436.426 436.404 436.382 436.359 436.337 436.314 
436.291 436.687 436.667 436.647 436.627 436.606 436.585 436.564 436.543 
436.522 436.5 436.479 436.457 436.435 436.412 436.39 436.367 436.761 
436.741 436.721 436.7 436.68 436.659 436.638 436.617 436.596 436.575 
436.553 436.532 436.51 436.488 436.465 436.443 436.834 436.814 436.794 
436.774 436.754 436.733 436.712 436.691 436.67 436.649 436.628 436.606 
436.585 436.563 436.541 436.518 436.907 436.887 436.867 436.847 436.827 
436.806 436.786 436.765 436.744 436.723 436.702 436.681 436.659 436.637 
436.615 436.594 436.98 436.96 436.94 436.92 436.9 436.88 436.859 
436.838 436.818 436.797 436.776 436.754 436.733 436.712 436.69 436.668 
437.053 437.033 437.013 436.993 436.973 436.953 436.932 436.912 436.891 
436.87 436.849 436.828 436.807 436.785 436.764 436.742 437.125 437.105 
437.085 437.065 437.045 437.025 437.005 436.984 436.964 436.943 436.922 
436.901 436.88 436.859 436.837 436.816 437.197 437.177 437.157 437.137 
437.117 437.097 437.077 437.056 437.036 437.015 436.995 436.974 436.953 
436.932 436.91 436.889 437.268 437.249 437.229 437.209 437.189 437.169 
437.149 437.128 437.108 437.087 437.067 437.046 437.025 437.004 436.983 
436.962 437.34 437.32 437.3 437.28 437.26 437.24 437.22 437.2 
437.179 437.159 437.138 437.117 437.097 437.076 437.055 437.033 437.41 
437.391 437.371 437.351 437.331 437.311 437.291 437.27 437.25 437.23 
437.209 437.188 437.168 437.147 437.126 437.105 437.481 437.461 437.441 
437.421 437.401 437.381 437.361 437.341 437.32 437.3 437.28 437.259 
437.238 437.217 437.197 437.176 437.55 437.531 437.511 437.491 437.471 
437.451 437.431 437.411 437.39 437.37 437.349 437.329 437.308 437.287 
437.267 437.246 437.62 437.6 437.58 437.56 437.54 437.52 437.5 
437.48 437.459 437.439 437.419 437.398 437.377 437.357 437.336 437.315 
437.688 437.669 437.649 437.629 437.609 437.589 437.569 437.548 437.528 
437.508 437.487 437.467 437.446 437.425 437.404 437.384 437.757 437.737 
437.717 437.697 437.677 437.657 437.636 437.616 437.596 437.575 437.555 
437.534 437.514 437.493 437.472 437.452 437.824 437.804 437.784 437.764 
437.744 437.724 437.704 437.684 437.663 437.643 437.622 437.602 437.581 
437.56 437.539 437.519 437.891 437.871 437.851 437.831 437.811 437.791 
437.77 437.75 437.73 437.709 437.689 437.668 437.647 437.627 437.606 
437.585 437.958 437.937 437.917 437.897 437.877 437.857 437.836 437.816 
437.795 437.775 437.754 437.734 437.713 437.692 437.671 437.65 438.023 
438.003 437.983 437.963 437.942 437.922 437.901 437.881 437.86 437.84 
437.819 437.798 437.778 437.757 437.736 437.715 438.088 438.068 438.048 
438.027 438.007 437.986 437.966 437.945 437.925 437.904 437.883 437.862 
437.842 437.821 437.8 437.779 438.152 438.132 438.112 438.091 438.071 
438.05 438.029 438.009 437.988 437.967 437.946 437.925 437.905 437.884 
437.862 437.841 438.216 438.195 438.175 438.154 438.134 438.113 438.092 
438.071 438.051 438.03 438.009 437.988 437.967 437.945 437.924 437.903 
438.278 438.258 438.237 438.216 438.196 438.175 438.154 438.133 438.112 
438.091 438.07 438.049 438.028 438.007 437.985 437.964 438.34 438.319 
438.299 438.278 438.257 438.236 438.215 438.194 438.173 438.152 438.131 
438.109 438.088 438.067 438.045 438.024 438.401 438.38 438.359 438.338 
438.317 438.296 438.275 438.254 438.233 438.211 438.19 438.169 438.147 
438.126 438.104 438.083 438.461 438.44 438.419 438.398 438.377 438.355 
438.334 438.313 438.291 438.27 438.249 438.227 438.205 438.184 438.162 
438.14 438.52 438.499 438.478 438.457 438.435 438.414 438.392 438.371 
438.349 438.328 438.306 438.284 438.263 438.241 438.219 438.197 438.579 
438.557 438.536 438.514 438.493 438.471 438.449 438.428 438.406 438.384 
438.362 438.341 438.319 438.297 438.275 438.253 438.636 438.614 438.593 
438.571 438.549 438.527 438.506 438.484 438.462 438.44 438.418 438.396 
438.374 438.351 438.329 438.307 438.692 438.67 438.649 438.627 438.605 
438.583 438.561 438.539 438.516 438.494 438.472 438.45 438.427 438.405 
438.383 438.36 438.747 438.725 438.703 438.681 438.659 438.637 438.615 
438.592 438.57 438.548 438.525 438.503 438.48 438.458 438.435 438.412 
438.802 438.779 438.757 438.735 438.712 438.69 438.668 438.645 438.622 
438.6 438.577 438.555 438.532 438.509 438.486 438.463 438.855 438.832 
438.81 438.787 438.765 438.742 438.719 438.697 438.674 438.651 438.628 
438.605 438.582 438.559 438.536 438.513 438.907 438.884 438.861 438.839 
438.816 438.793 438.77 438.747 438.724 438.701 438.678 438.655 438.631 
438.608 438.585 438.561 438.958 438.935 438.912 438.889 438.866 438.843 
438.819 438.796 438.773 438.75 438.726 438.703 438.679 438.656 438.632 
438.609 439.008 438.984 438.961 438.938 438.914 438.891 438.868 438.844 
438.821 438.797 438.773 438.75 438.726 438.702 438.678 438.655 439.056 
439.033 439.009 438.986 438.962 438.938 438.915 438.891 438.867 438.843 
438.819 438.795 438.771 438.747 438.723 438.699 439.104 439.08 439.056 
439.032 439.008 438.984 438.96 438.936 438.912 438.888 438.864 438.84 
438.815 438.791 438.767 438.742 439.15 439.126 439.102 439.077 439.053 
439.029 439.005 438.981 438.956 438.932 438.907 438.883 438.858 438.834 
438.809 438.784 439.195 439.17 439.146 439.122 439.097 439.073 439.048 
439.023 438.999 438.974 438.949 438.925 438.9 438.875 438.85 438.825 
439.238 439.214 439.189 439.164 439.14 439.115 439.09 439.065 439.04 
439.015 438.99 438.965 438.94 438.915 438.89 438.864 439.281 439.256 
439.231 439.206 439.181 439.156 439.131 439.105 439.08 439.055 439.03 
439.004 438.979 438.953 438.928 438.902 439.322 439.297 439.272 439.246 
439.221 439.195 439.17 439.144 439.119 439.093 439.068 439.042 439.016 
438.99 438.964 438.939 439.362 439.336 439.311 439.285 439.259 439.234 
439.208 439.182 439.156 439.13 439.104 439.078 439.052 439.026 439 
438.974 439.401 439.375 439.349 439.323 439.297 439.271 439.244 439.218 
439.192 439.166 439.139 439.113 439.087 439.06 439.034 439.007 439.438 
439.412 439.385 439.359 439.333 439.306 439.28 439.253 439.227 439.2 
439.173 439.147 439.12 439.093 439.066 439.039 439.474 439.447 439.42 
439.394 439.367 439.34 439.313 439.287 439.26 439.233 439.206 439.179 
439.152 439.124 439.097 439.07 439.508 439.481 439.454 439.427 439.4 
439.373 439.346 439.319 439.291 439.264 439.237 439.209 439.182 439.154 
439.127 439.099 439.541 439.514 439.487 439.459 439.432 439.404 439.377 
439.349 439.322 439.294 439.266 439.239 439.211 439.183 439.155 439.127 
439.573 439.546 439.518 439.49 439.462 439.434 439.406 439.379 439.351 
439.323 439.294 439.266 439.238 439.21 439.182 439.153 439.604 439.576 
439.547 439.519 439.491 439.463 439.435 439.406 439.378 439.35 439.321 
439.293 439.264 439.235 439.207 439.178 439.633 439.604 439.576 439.547 
439.519 439.49 439.461 439.433 439.404 439.375 439.346 439.317 439.288 
439.259 439.23 439.201 439.66 439.631 439.603 439.574 439.545 439.516 
439.487 439.458 439.428 439.399 439.37 439.341 439.311 439.282 439.252 
439.223 439.687 439.657 439.628 439.599 439.569 439.54 439.51 439.481 
439.451 439.422 439.392 439.362 439.333 439.303 439.273 439.243 439.711 
439.682 439.652 439.622 439.593 439.563 439.533 439.503 439.473 439.443 
439.413 439.383 439.353 439.322 439.292 439.262 439.735 439.705 439.675 
439.645 439.614 439.584 439.554 439.523 439.493 439.463 439.432 439.402 
439.371 439.34 439.31 439.279 439.757 439.726 439.696 439.665 439.635 
439.604 439.573 439.542 439.512 439.481 439.45 439.419 439.388 439.357 
439.326 439.294 439.778 439.747 439.716 439.685 439.654 439.622 439.591 
439.56 439.529 439.497 439.466 439.435 439.403 439.372 439.34 439.309 
439.797 439.765 439.734 439.702 439.671 439.639 439.608 439.576 439.544 
439.513 439.481 439.449 439.417 439.385 439.353 439.321 439.815 439.783 
439.751 439.719 439.687 439.655 439.623 439.591 439.559 439.526 439.494 
439.462 439.429 439.397 439.364 439.332 439.831 439.799 439.766 439.734 
439.701 439.669 439.636 439.604 439.571 439.539 439.506 439.473 439.44 
439.407 439.374 439.341 439.846 439.813 439.78 439.747 439.715 439.682 
439.649 439.616 439.582 439.549 439.516 439.483 439.449 439.416 439.383 
439.349 439.86 439.826 439.793 439.76 439.726 439.693 439.659 439.626 
439.592 439.558 439.525 439.491 439.457 439.423 439.389 439.355 439.872 
439.838 439.804 439.77 439.737 439.703 439.669 439.634 439.6 439.566 
439.532 439.498 439.463 439.429 439.395 439.36 439.883 439.848 439.814 
439.78 439.745 439.711 439.676 439.642 439.607 439.572 439.538 439.503 
439.468 439.433 439.398 439.363 439.892 439.857 439.823 439.788 439.753 
439.718 439.683 439.648 439.612 439.577 439.542 439.507 439.471 439.436 
439.4 439.365 439.9 439.865 439.83 439.794 439.759 439.723 439.688 
439.652 439.616 439.581 439.545 439.509 439.473 439.437 439.401 439.365 
439.907 439.871 439.835 439.799 439.763 439.727 439.691 439.655 439.619 
439.582 439.546 439.51 439.473 439.437 439.4 439.363 439.912 439.876 
439.84 439.803 439.767 439.73 439.693 439.657 439.62 439.583 439.546 
439.509 439.472 439.435 439.398 439.36 439.916 439.879 439.842 439.805 
439.768 439.731 439.694 439.657 439.619 439.582 439.544 439.507 439.469 
439.432 439.394 439.356 439.919 439.881 439.844 439.806 439.769 439.731 
439.693 439.655 439.618 439.58 439.541 439.503 439.465 439.427 439.388 
439.35 439.92 439.882 439.844 439.806 439.768 439.73 439.691 439.653 
439.614 439.576 439.537 439.498 439.459 439.42 439.381 439.342 439.92 
439.882 439.843 439.804 439.766 439.727 439.688 439.649 439.61 439.57 
439.531 439.492 439.452 439.413 439.373 439.333 439.919 439.88 439.841 
439.801 439.762 439.723 439.683 439.643 439.604 439.564 439.524 439.484 
439.444 439.404 439.363 439.323 439.916 439.877 439.837 439.797 439.757 
439.717 439.677 439.637 439.596 439.556 439.515 439.475 439.434 439.393 
439.352 439.311 439.913 439.872 439.832 439.792 439.751 439.71 439.669 
439.629 439.588 439.546 439.505 439.464 439.422 439.381 439.339 439.298 
439.908 439.867 439.826 439.785 439.743 439.702 439.661 439.619 439.577 
439.536 439.494 439.452 439.41 439.368 439.325 439.283 439.901 439.86 
439.818 439.776 439.735 439.693 439.651 439.608 439.566 439.524 439.481 
439.438 439.396 439.353 439.31 439.267 439.894 439.852 439.809 439.767 
439.725 439.682 439.639 439.596 439.553 439.51 439.467 439.424 439.38 
439.337 439.293 439.249 439.885 439.842 439.799 439.756 439.713 439.67 
439.627 439.583 439.54 439.496 439.452 439.408 439.363 439.319 439.275 
439.23 439.875 439.832 439.788 439.745 439.701 439.657 439.613 439.569 
439.524 439.48 439.435 439.39 439.345 439.3 439.255 439.21 439.864 
439.82 439.776 439.731 439.687 439.643 439.598 439.553 439.508 439.463 
439.417 439.372 439.326 439.28 439.234 439.188 439.851 439.807 439.762 
439.717 439.672 439.627 439.582 439.536 439.49 439.444 439.398 439.352 
439.305 439.259 439.212 439.165 439.838 439.793 439.747 439.702 439.656 
439.61 439.564 439.518 439.471 439.425 439.378 439.331 439.283 439.236 
439.188 439.141 439.823 439.777 439.731 439.685 439.639 439.592 439.545 
439.498 439.451 439.404 439.356 439.308 439.26 439.212 439.164 439.115 
439.807 439.761 439.714 439.667 439.62 439.573 439.526 439.478 439.43 
439.382 439.333 439.285 439.236 439.187 439.138 439.088 439.79 439.743 
439.696 439.649 439.601 439.553 439.505 439.456 439.408 439.359 439.309 
439.26 439.21 439.16 439.11 439.06 439.772 439.725 439.677 439.629 
439.58 439.532 439.483 439.434 439.384 439.334 439.284 439.234 439.184 
439.133 439.082 439.031 439.753 439.705 439.656 439.608 439.559 439.509 
439.46 439.41 439.36 439.309 439.258 439.207 439.156 439.104 439.052 
439 439.733 439.684 439.635 439.586 439.536 439.486 439.435 439.385 
439.334 439.283 439.231 439.179 439.127 439.074 439.022 438.968 439.712 
439.662 439.612 439.562 439.512 439.461 439.41 439.359 439.307 439.255 
439.203 439.15 439.097 439.044 438.99 438.936 439.69 439.639 439.589 
439.538 439.487 439.436 439.384 439.332 439.279 439.227 439.173 439.12 
439.066 439.012 438.957 438.902 439.667 439.616 439.565 439.513 439.461 
439.409 439.357 439.304 439.251 439.197 439.143 439.089 439.034 438.979 
438.923 438.867 439.642 439.591 439.539 439.487 439.435 439.382 439.329 
439.275 439.221 439.167 439.112 439.057 439.001 438.945 438.888 438.831 
439.617 439.565 439.513 439.46 439.407 439.353 439.3 439.245 439.191 
439.135 439.08 439.024 438.967 438.91 438.852 438.794 439.591 439.538 
439.485 439.432 439.378 439.324 439.27 439.215 439.159 439.103 439.047 
438.99 438.932 438.874 438.816 438.756 439.563 439.51 439.457 439.403 
439.349 439.294 439.239 439.183 439.127 439.07 439.013 438.955 438.896 
438.837 438.778 438.718 439.535 439.482 439.428 439.373 439.318 439.263 
439.207 439.15 439.093 439.036 438.978 438.919 438.86 438.8 438.739 
438.678 439.506 439.452 439.397 439.342 439.287 439.231 439.174 439.117 
439.059 439.001 438.942 438.883 438.822 438.762 438.7 438.638 439.476 
439.422 439.366 439.311 439.255 439.198 439.141 439.083 439.024 438.965 
438.906 438.845 438.784 438.723 438.66 438.597 439.445 439.39 439.334 
439.278 439.221 439.164 439.106 439.048 438.989 438.929 438.869 438.807 
438.745 438.683 438.619 438.555 439.414 439.358 439.302 439.245 439.188 
439.13 439.071 439.012 438.952 438.892 438.831 438.769 438.706 438.642 
438.578 438.512 439.381 439.325 439.268 439.211 439.153 439.095 439.035 
438.976 438.915 438.854 438.792 438.729 438.666 438.601 438.536 438.469 
439.348 439.291 439.234 439.176 439.118 439.059 438.999 438.939 438.877 
438.816 438.753 438.689 438.625 438.56 438.493 438.425 439.314 439.256 
439.199 439.14 439.081 439.022 438.962 438.901 438.839 438.776 438.713 
438.649 438.584 438.517 438.45 438.381 439.278 439.221 439.163 439.104 
439.044 438.984 438.924 438.862 438.8 438.737 438.673 438.608 438.542 